# vtk DataFile Version 3.0
File created by libpointmatcher
ASCII
DATASET POLYDATA
POINTS 10 float
     1.02273     0.525551     0.418111
      1.8296     0.716939     0.834331
    -1.85507     0.748485      2.24464
    0.278878      1.08849     0.369126
    -1.96512    -0.585905      2.22959
     5.3     -1.41145    2.583442
     2.46777    0.0665142      1.75838
     10.0999     -1.72627      1.30924
     4.5      -1.7       1.3
     4.57623     -1.72859      1.31936
VERTICES 10 20
1 0
1 1
1 2
1 3
1 4
1 5
1 6
1 7
1 8
1 9
POINT_DATA 10
SCALARS omega float
LOOKUP_TABLE default
 529
 742
1722
 613
 343
 540
 577
 167
 1
1987
TENSORS deviation float
     18.2087      3.59645      2.49733      3.59645      10.5434     0.365737      2.49734     0.365737      3.84221
     21.4616    -0.972281      8.33979    -0.972281      2.83379    -0.306481      8.33979    -0.306481      42.8263
     383.386     -31.3565      3.73068     -31.3565      126.793    0.0210485      3.73068    0.0210485      3.15291
     16.7833      1.81359      2.86329      1.81359      12.5198     -1.10965      2.86329     -1.10965      5.37302
     41.2729      2.84064      1.22252      2.84064      3.85153     0.560482      1.22252     0.560482     0.804985
     41.4259     -6.36272    -0.235412     -6.36272      19.4712     0.748503    -0.235412     0.748503     0.814659
     5.03255     -4.36925      -2.1456     -4.36925      27.0331      2.06838      -2.1456      2.06838      5.39164
    0.490058    -0.708831    -0.167288    -0.708831      2.13371     0.352318    -0.167288     0.352318      6.88919
    0.124019    0.0487588    0.0133313    0.0487588      2.02258     0.628039    0.0133313     0.628039      4.13419
     59.7828       11.115      3.72927       11.115      25.3729     -13.8468      3.72927     -13.8468       171.79