# vtk DataFile Version 3.0
Global map with ratio of 0.100000
ASCII
DATASET POLYDATA
POINTS 2498 float
-4.211934   0.013509   -0.951972
-6.097011   0.019921   -0.954469
-9.952363   0.030939   -0.937922
-12.278152   0.037370   -0.910566
-13.374476   0.040798   4.586904
-8.163516   0.025192   4.067005
-4.474542   0.014846   3.700319
-2.781756   0.010045   4.006096
-0.965747   0.004399   3.697898
-0.772726   0.004065   4.228479
-0.694718   0.003656   4.193976
0.081231   0.001704   5.339901
-4.091591   0.147767   -0.950026
-5.132461   0.181008   -0.940735
-11.553642   0.387792   -0.910898
-9.569607   0.323902   3.887936
-4.583713   0.164044   3.703746
-2.579075   0.099200   5.238975
-2.527819   0.097363   5.324855
-2.234531   0.088091   5.736912
-0.656113   0.037176   3.724607
-0.250561   0.024674   4.531018
-0.172698   0.021856   4.811122
-0.294837   0.025554   6.654366
0.215077   0.009297   5.070069
0.401015   0.003333   6.629140
-3.439641   0.243909   -0.968004
-6.492757   0.432565   -0.943245
-3.885359   0.270715   2.642176
-3.816246   0.266480   3.347328
-4.009711   0.278480   4.342557
-3.681739   0.258297   4.213971
-3.781369   0.264969   5.518766
-2.433557   0.181667   4.693642
-0.970272   0.091202   4.086729
-0.153239   0.040422   4.905604
0.255314   0.015546   5.002530
-4.843419   0.487917   -0.953253
-5.495041   0.547179   -0.956459
-8.568691   0.827122   -0.936277
-10.367017   0.991486   -0.924773
-12.223431   1.160631   4.662330
-4.034353   0.413875   2.838984
-0.858005   0.124095   3.795157
-0.752855   0.114597   4.276771
-0.533747   0.094897   4.873226
-2.939253   0.416700   -0.959993
-3.382749   0.471061   -0.950124
-6.444907   0.842061   -0.940612
-49.064084   6.004949   8.457876
-48.482946   5.934139   10.141058
-3.574955   0.494239   4.630802
-3.914755   0.535090   5.685586
-0.726445   0.148529   4.688844
-0.558876   0.128104   4.844810
-3.140598   0.549333   -0.957883
-3.640928   0.624948   -0.952717
-8.446820   1.349995   -0.923773
-7.311278   1.179049   3.414398
-4.609020   0.770789   3.408545
-3.801908   0.649156   3.718144
-5.043248   0.836760   7.679440
-0.926172   0.215268   3.306583
-0.906146   0.211981   3.365694
-0.798261   0.195801   3.574884
-0.853108   0.204486   3.804077
-0.642534   0.172934   4.777334
-0.412548   0.137754   4.994817
-0.298872   0.120657   5.152253
0.042425   0.069597   4.761683
0.103122   0.060254   4.808927
-4.379556   0.885167   -0.953785
-5.219913   1.036646   -0.945457
-6.835109   1.329648   -0.928413
-8.756525   1.678103   -0.914518
-28.119470   5.187419   -0.780970
-28.097055   5.183332   -0.270878
-4.094567   0.833176   2.382835
-4.292455   0.868578   3.117016
-4.239656   0.859691   3.506909
-4.442004   0.896243   4.077159
-1.010734   0.274107   3.318019
-1.054837   0.281783   3.479412
-0.749659   0.226350   3.784438
-2.966127   0.734103   -0.963669
-3.772267   0.904117   -0.944451
-3.984950   0.948982   -0.946052
-4.217419   0.998022   -0.948238
-6.082877   1.393471   -0.929897
-7.555683   1.704525   -0.901306
-9.269424   2.067760   -0.761464
-27.168434   5.854894   -0.484052
-4.327318   1.022002   3.093944
-4.372087   1.031152   3.647452
-3.647613   0.878475   4.079640
-3.540360   0.855183   4.225707
-3.517894   0.850680   4.444960
-3.527985   0.852260   4.706668
-1.379188   0.398041   3.547468
-0.787612   0.273077   4.819747
-0.362197   0.182918   4.531811
-0.212945   0.151289   5.126282
-3.456278   0.960388   -0.941869
-13.732500   3.454298   -0.669546
-4.193624   1.138787   2.901829
-4.298032   1.165001   3.907822
-4.190258   1.138864   3.956906
-4.384995   1.185873   4.201892
-3.555658   0.984313   4.201810
-3.448364   0.958557   4.722159
-0.396065   0.217596   4.562749
-0.295913   0.193811   4.690261
-0.543097   0.253679   7.410791
0.329022   0.041369   5.006208
-2.774903   0.897257   -0.960182
-6.886735   2.023790   -0.768596
-14.095633   3.997928   2.057173
-5.581819   1.666246   3.048282
-3.947721   1.218977   4.349948
-8.536589   2.475122   11.776513
-4.981859   1.501820   8.017112
-1.534857   0.557182   4.804438
-0.281250   0.213941   4.507653
-0.704746   0.330089   7.419734
0.394433   0.029037   7.219042
-3.366596   1.183310   -0.928888
-11.597623   3.701647   -0.666390
-12.441552   3.959195   3.752274
-5.296947   1.773502   3.635265
-4.921915   1.659448   4.339140
-4.292117   1.466100   4.443412
-4.243201   1.451323   4.669717
-1.829838   0.712493   4.543583
-0.878301   0.421897   4.656372
-1.312604   0.554362   6.067264
-0.203246   0.214912   5.388912
0.456939   0.013786   6.059778
-30.623381   10.528188   0.424328
-40.777664   13.962186   9.467001
-5.340075   1.975288   3.243206
-4.920358   1.833150   4.041806
-4.508983   1.694619   4.983556
-3.658788   1.406644   4.682831
-3.527742   1.362766   4.827063
-2.926857   1.159144   5.799490
-1.631831   0.721106   4.896974
-0.820616   0.446858   3.735251
-0.215933   0.242552   5.283798
-3.140959   1.352849   -0.936742
-4.584783   1.889445   -0.815327
-4.819831   1.977143   -0.789567
-5.443865   2.208951   -0.758802
-29.110999   11.002319   0.722212
-4.143261   1.725962   4.403742
-8.468282   3.332602   12.199968
-2.567577   1.139694   5.420966
-1.331459   0.681161   5.285769
-0.565765   0.395735   3.884182
-3.578428   1.652516   -0.867924
-4.329206   1.956306   -0.794171
-9.221933   3.938525   -0.662002
-10.477477   4.447522   -0.665242
-18.211691   7.581118   -1.123207
-4.986132   2.222543   3.037689
-8.303351   3.566853   5.428358
-3.795791   1.740006   5.027878
-3.255007   1.521434   5.343902
-0.513874   0.410832   3.847373
-0.180468   0.276343   4.452790
-0.070654   0.230838   4.881584
-2.693842   1.405176   -0.894524
-2.805061   1.453765   -0.879514
-4.757149   2.312750   -0.701579
-26.145492   11.723835   0.235782
-4.942855   2.395176   2.648437
-1.871631   1.043263   5.577820
-1.464540   0.864831   5.933540
-0.997883   0.659384   5.374094
-0.337840   0.368881   5.497790
-12.308524   6.089088   5.334872
-10.713649   5.330791   6.526669
-3.852400   2.069153   4.901455
-3.392624   1.850790   6.515769
-1.898888   1.139882   5.248522
0.405499   0.045054   6.929127
-2.368424   1.468582   -0.898359
-4.467521   2.543405   -0.653269
-5.541138   3.093894   -0.629842
-6.087299   3.373078   -0.641043
-16.059437   8.478632   -0.792487
-11.952137   6.375989   5.142903
-6.009588   3.332383   5.657851
-3.568268   2.083498   4.506109
-3.280851   1.936158   4.756705
-0.017475   0.264998   4.886779
0.208751   0.148921   5.147125
-3.883831   2.408414   -0.722502
-6.435637   3.810338   -0.682389
-12.427711   7.102346   4.951313
-6.335331   3.756026   3.533468
-0.051955   0.303334   4.970406
0.310121   0.104057   5.114369
0.337954   0.088932   6.276777
-4.591344   2.995972   -0.638484
-4.723663   3.073684   -0.567710
-7.695030   4.822280   -0.762680
-8.578173   5.343017   -0.763291
-3.471432   2.337555   4.286424
-2.898568   1.999878   5.615368
-3.333008   2.255667   7.469030
-2.234939   1.718951   -0.865176
-4.180048   2.941476   -0.690199
-4.521345   3.156675   -0.589473
-4.520041   3.155230   -0.152771
-4.554437   3.177307   0.895446
-4.521308   3.156415   0.999700
-4.295920   3.014856   1.795766
-4.129122   2.909710   2.062547
-4.037848   2.852680   2.236909
-3.866338   2.744872   3.404403
-3.726525   2.656728   4.626291
-4.476907   3.127860   6.674933
-1.019845   0.954924   5.441052
-0.413597   0.575053   4.528704
0.011790   0.306913   5.099697
-2.042416   1.705785   -0.875928
-2.338902   1.904218   -0.856252
-4.341623   3.247205   0.643179
-4.236444   3.177517   1.649405
-4.492476   3.349332   3.866854
-4.430878   3.307695   4.496502
-4.325836   3.237214   5.789322
-4.301544   3.221213   6.485819
-1.230213   1.160582   4.681480
-0.317186   0.547936   5.432260
0.173650   0.218481   5.071120
-2.565061   2.188659   -0.836947
-4.075639   3.266274   -0.506618
-4.139405   3.311686   -0.316227
-4.223339   3.371717   0.184150
-4.390704   3.491334   2.609480
-4.370567   3.477155   3.539401
-4.362160   3.471016   5.666275
-1.587921   1.489957   3.749709
-1.588224   1.490938   3.950710
-1.368964   1.333979   5.317477
-1.388352   1.348855   5.552854
-1.089273   1.134868   5.384845
-0.796800   0.925596   4.940404
0.048259   0.321911   4.941237
-2.120329   1.990055   -0.861535
-3.381325   2.947624   -0.725970
-3.990286   3.410465   -0.670250
-4.128306   3.515475   -0.077341
-4.123353   3.511522   1.867321
-5.631594   4.657622   5.717704
-2.442879   2.235066   5.815418
-0.847488   1.024036   5.083443
0.006015   0.374660   5.143949
0.137755   0.275505   4.984125
0.464460   0.026913   5.969774
-2.795930   2.658947   -0.797545
-2.935343   2.771390   -0.783308
-4.038541   3.660718   -0.133720
-3.728723   3.411096   1.860127
-10.387279   8.781484   5.009779
-9.556454   8.111411   4.949195
-5.371970   4.736020   5.531912
-1.625497   1.714882   4.031807
-2.291205   2.251894   5.934701
-1.310559   1.460354   4.580982
-2.296218   2.255367   7.754305
-1.228912   1.394682   5.356871
-0.717149   0.981505   5.294295
0.009694   0.394906   4.970515
0.428101   0.058051   6.229184
-3.368143   3.313025   -0.704127
-3.854760   3.730870   -0.698706
-4.113598   3.952427   1.264896
-4.632343   4.397267   2.622052
-4.991460   4.704297   3.559896
-5.373328   5.030442   4.854679
-4.778188   4.521407   5.426895
-2.168351   2.285875   3.599189
-6.767070   6.224861   10.078770
-1.490378   1.705006   4.178942
0.392540   0.092179   6.368093
-2.068403   2.333786   -0.845170
-5.806680   5.730126   5.529912
-4.413353   4.464221   4.679341
-2.112681   2.374794   3.659739
-1.424520   1.748684   4.209422
-1.076790   1.432230   4.279054
-1.206507   1.550730   5.335118
-0.936422   1.305033   5.159842
-0.913190   1.284258   6.243359
-1.955223   2.366757   -0.851500
-2.639410   3.027201   -0.806464
-2.769031   3.152267   -0.788705
-3.221347   3.587765   -0.729499
-3.933053   4.274784   -0.707932
-8.098873   8.290439   -0.999249
-14.510480   14.472269   0.088660
-2.906427   3.284575   2.311848
-2.736432   3.120346   2.503728
-2.504517   2.897078   2.814081
[...]
POINT_DATA 2498
SCALARS weight float
LOOKUP_TABLE default
0.223503
0.156830
0.097315
0.083143
0.228076
0.641763
0.831955
0.544147
0.545652
0.247227
0.314228
0.543300
0.231321
0.181772
0.087384
0.287598
0.679246
0.987536
0.383448
0.526728
0.070654
0.456132
0.340810
0.656786
0.776177
0.212723
0.282186
0.145053
0.694661
0.683486
0.956865
0.959276
0.594039
0.806155
0.171158
0.630412
0.917046
0.199209
0.170363
0.109563
0.087515
0.426272
0.742612
0.538802
0.185436
0.054102
0.322248
0.272024
0.134115
0.143531
0.193073
0.365427
0.435412
0.137294
0.286162
0.305005
0.254245
0.111198
0.540418
0.179688
0.542331
0.043695
0.602533
0.634186
0.552981
0.513111
0.438889
0.153024
0.040274
0.715630
0.761046
0.216809
0.176058
0.123312
0.105039
0.086024
0.067873
0.535340
0.808965
0.924674
0.492920
0.761642
0.762831
0.515459
0.330342
0.241663
0.244375
0.233891
0.132704
0.103571
0.118177
0.113951
0.600310
0.736153
0.502311
0.588743
0.807451
0.809364
0.792676
0.105882
0.200787
0.162003
0.261142
0.009360
0.651614
0.498917
0.660836
0.463146
0.618834
0.877215
0.216032
0.519145
0.785275
0.931777
0.357568
0.135537
0.425279
0.020267
0.681883
0.105035
0.034866
0.757944
0.068231
0.781891
0.223297
0.277397
0.178844
0.183464
0.275900
0.312706
0.530450
0.505609
0.423181
0.683993
0.618738
0.369668
0.453960
0.002211
0.168783
0.559825
0.552598
0.107706
0.825590
0.766552
0.893409
0.632662
0.810735
0.493729
0.257724
0.221121
0.197417
0.161639
0.012595
0.708968
0.004131
0.797005
0.439324
0.463310
0.267682
0.239353
0.098798
0.171719
0.170738
0.643572
0.125921
0.748074
0.860574
0.457709
0.378502
0.252076
0.307740
0.305775
0.212556
0.060573
0.909953
0.612050
0.191623
0.582205
0.521841
0.116674
0.081849
0.774282
0.446978
0.460472
0.197324
0.353590
0.288538
0.098034
0.065503
0.335869
0.201395
0.404482
0.954515
0.963195
0.158810
0.497560
0.372877
0.013241
0.013808
0.323191
0.811610
0.640789
0.077561
0.132244
0.148798
0.042408
0.079120
0.919412
0.634732
0.204547
0.331888
0.682119
0.245726
0.840547
0.864444
0.930797
0.898315
0.911782
0.874221
0.780945
0.676207
0.090305
0.534701
0.919472
0.655388
0.352317
0.326639
0.986788
0.796150
0.782287
0.563346
0.214211
0.167306
0.625760
0.710553
0.466243
0.309348
0.810124
0.800835
0.964346
0.433089
0.650256
0.283282
0.819006
0.980681
0.565910
0.041655
0.712815
0.562297
0.760706
0.336752
0.408630
0.402726
0.912037
0.809017
0.051052
0.669182
0.735857
0.539811
0.496674
0.316292
0.277686
0.260354
0.890015
0.915789
0.389314
0.381991
0.163686
0.989517
0.591576
0.763391
0.054005
0.505585
0.884075
0.985787
0.237970
0.409028
0.207062
0.937190
0.274531
0.037195
0.289803
0.199728
0.979402
0.183228
0.923294
0.263572
0.331552
0.259768
0.155294
0.977001
0.884900
0.910718
0.539901
0.814142
0.233409
0.338648
0.270826
0.274367
0.369844
0.168045
0.016484
0.196720
0.939786
0.962906
0.983787
0.128160
0.625458
0.822853
0.804913
0.388831
0.545144
0.239205
0.089658
0.946835
0.788290
0.026314
0.001589
0.307317
0.344491
0.061450
0.112457
0.777696
0.177999
0.000232
0.940029
0.410349
0.541332
0.185412
0.096646
0.193680
0.310755
0.905066
0.621309
0.449409
0.922807
0.893300
0.295997
0.511953
0.279027
0.061041
0.972480
0.371568
0.337720
0.488411
0.032945
0.788268
0.343444
0.574610
0.985412
0.079129
0.487586
0.307856
0.903558
0.028911
0.065485
0.939258
0.838560
0.926968
0.976318
0.009505
0.655276
0.279241
0.402278
0.725341
0.427244
0.522975
0.348098
0.823199
0.952304
0.981226
0.590554
0.280093
0.791739
0.515164
0.461419
0.403092
0.108157
0.021315
0.651568
0.697661
0.295352
0.913534
0.889738
0.953844
0.965714
0.947746
0.954952
0.367821
0.313800
0.752590
0.133009
0.404626
0.960607
0.951096
0.180458
0.235154
0.484221
0.831165
0.770956
0.897229
0.232028
0.793854
0.243649
0.360380
0.416589
0.755428
0.263538
0.405550
0.740132
0.811304
0.303087
0.435460
0.053255
0.172621
0.335689
0.347939
0.274909
0.184282
0.449625
0.416593
0.753120
0.129537
0.512871
0.198182
0.950759
0.564854
0.538808
0.451518
0.182080
0.365007
0.580248
0.873496
0.566674
0.737929
0.717174
0.370351
0.334429
0.492575
0.683406
0.005783
0.575709
0.116409
0.618787
0.797196
0.179039
0.963901
0.775672
0.193756
0.099646
0.125008
0.068064
0.456585
0.693904
0.245617
0.747231
0.040017
0.563537
0.452884
0.822272
0.287405
0.148830
0.088685
0.541348
0.739676
0.698437
0.553588
0.534261
0.496757
0.084702
0.579712
0.645636
0.472135
0.006405
0.942657
0.730151
0.591423
0.624008
0.223791
0.560783
0.330169
0.036603
0.476263
0.498167
0.940881
0.725528
0.992036
0.076142
0.079265
0.506792
0.042625
0.350057
0.322524
0.373814
0.742337
0.184367
0.004273
0.694493
0.493143
0.460653
0.888450
0.951024
0.123450
0.876608
0.009396
0.122047
0.813327
0.558808
0.408576
0.502551
0.909336
0.261002
0.554170
0.166947
0.009673
0.991998
0.891454
0.815192
0.605733
0.615778
0.863692
0.481813
0.220701
0.164308
0.157401
0.643484
0.677635
0.124559
0.620777
0.465226
0.946595
0.217231
0.114761
0.045189
0.281741
0.217112
0.201779
0.020684
0.010838
0.666458
0.942862
0.916826
0.321992
0.719360
0.404261
0.369911
0.265190
0.179516
0.148584
0.043433
0.059342
0.023395
0.918870
0.418364
0.301349
0.069599
0.469750
0.915447
0.391675
0.304506
0.168833
0.820050
0.884645
0.457674
0.551057
0.462708
0.455293
0.298053
0.261256
0.220235
0.211973
0.190285
0.214605
0.192796
0.196617
0.941181
0.870552
0.868936
0.758743
0.745711
0.265102
0.534780
0.623705
0.456038
0.903573
0.461178
0.415709
0.357052
0.324352
0.276011
0.241431
0.035842
0.183852
0.882621
0.209646
0.442887
0.424963
0.438672
0.960470
0.107579
0.022531
0.047093
0.239941
0.042079
0.127881
0.428215
0.285654
0.260599
0.202521
0.231446
0.025670
0.007751
0.775440
0.912201
0.964439
0.880829
0.686878
0.717222
0.410461
0.519070
0.626118
0.541686
0.691203
0.923094
0.372009
0.488506
0.430681
0.305591
0.041258
0.520657
0.327145
0.658745
0.708731
0.697364
0.786519
0.662960
0.876699
0.885658
0.199713
0.500575
0.454578
0.494334
0.375208
0.326357
0.467410
0.349211
0.114663
0.477172
0.542679
0.573042
0.518370
0.670856
0.865946
0.980722
0.903806
0.407512
0.291371
0.951415
0.934360
0.442232
0.414263
0.364330
0.319073
0.224428
0.245063
0.296212
0.599369
0.602439
0.437098
0.653366
0.576691
0.292936
0.875772
0.328089
0.460178
0.797471
0.942720
0.946860
0.910964
0.389492
0.228003
0.307600
0.638865
0.659121
0.821308
0.847000
0.423878
0.874275
0.952433
0.409114
0.390174
0.374809
0.325214
0.854659
0.551739
0.962364
0.977651
0.231865
0.862289
0.462979
0.392952
0.378947
0.316447
0.105439
0.479427
0.628428
0.992819
0.970000
0.982063
0.932152
0.729356
0.732839
0.481799
0.537336
0.697433
0.897861
0.535345
0.424781
0.407742
0.544211
0.676215
0.817977
0.705147
0.910122
0.562936
0.038251
0.921966
0.854829
0.551010
0.292165
0.988386
0.992523
0.650009
0.442526
0.277388
0.148928
0.532633
0.712191
0.063455
0.760510
0.878490
0.933011
0.870746
0.359556
0.393995
0.336365
0.324408
0.335084
0.519099
0.955649
0.954293
0.962928
0.573834
0.097277
0.708768
0.961557
0.810177
0.290289
0.657493
0.245830
0.679184
0.844076
0.917911
0.837656
0.583313
0.008615
0.796178
0.959844
0.830629
0.682662
0.372726
0.339487
0.712462
0.542471
0.946035
0.496017
0.686245
0.901308
0.964835
0.764131
0.400827
0.371574
0.705234
0.747926
0.705981
0.260906
0.231790
0.931575
0.996822
0.946065
0.799048
0.860070
0.858178
0.744101
0.402627
0.928412
0.351001
0.310334
0.718284
0.768976
0.478655
0.194221
0.929092
0.983047
0.727515
0.596575
0.585257
0.801669
0.891394
0.362316
0.821747
0.204651
0.681249
0.928205
0.876834
0.591084
0.283698
0.429276
0.883335
0.680575
0.387002
0.326555
0.219218
0.172737
0.874934
0.583234
0.930893
0.629347
0.382488
0.320007
0.747854
0.854460
0.201236
0.174105
0.801955
0.736589
0.611854
0.441271
0.357239
0.756099
0.239556
0.665194
0.906585
0.746885
0.861841
0.270316
0.837148
0.329575
0.292840
0.279715
0.265892
0.403402
0.759070
0.533423
0.945357
0.701087
0.855725
0.925484
0.657801
0.551296
0.867123
0.775318
0.860092
0.902734
0.662884
0.810345
0.736111
0.822840
0.639104
0.984962
0.851329
0.520211
0.124869
0.910964
0.869616
0.590560
0.960702
0.702752
0.341720
0.263712
0.907985
0.031429
0.748763
0.733934
0.826601
0.823023
0.602366
0.988355
0.453102
0.312344
0.294587
0.269218
0.561446
0.893699
0.887940
0.893371
0.932156
0.971260
0.849091
0.052258
0.379173
0.921191
0.489633
0.263467
0.178136
0.204783
0.602967
0.822243
0.432718
0.275354
0.416115
0.645444
0.929410
0.126658
0.744113
0.925613
0.921028
0.925929
0.696086
0.345078
0.330864
0.279328
0.903119
0.880152
0.914934
0.863114
0.571976
0.555492
0.382609
0.703950
0.229949
0.146610
0.720539
0.862492
0.382354
0.760623
0.594317
0.627737
0.299688
0.472511
0.947983
0.331787
0.496095
0.623836
0.236265
0.400970
0.816264
0.344134
0.547657
0.694891
0.883022
0.608113
0.557870
0.027583
0.711179
0.808744
0.775949
0.836425
0.899017
0.449372
0.627538
0.359089
0.504444
0.411702
0.828170
0.420515
0.710742
0.961821
0.949826
0.767210
0.485782
0.025870
0.298667
0.450727
0.926451
0.721951
0.967980
0.676509
0.068850
0.062198
0.940287
0.854857
0.986323
0.817942
0.819807
0.467311
0.520946
0.843248
0.831478
0.015585
0.428121
0.235006
0.149282
0.095303
0.600544
0.615710
0.751063
0.471713
0.910717
0.904996
0.637313
0.533317
0.362743
0.305648
0.450229
0.990970
0.992592
0.942621
0.065471
0.796079
0.692468
0.347124
0.809827
0.887192
0.941250
0.815577
0.804170
0.069579
0.882367
0.658804
0.359631
0.870814
0.884819
0.846920
0.775360
0.367030
0.779445
0.992375
0.985799
0.996897
0.881254
0.654115
0.476893
0.652040
0.940838
0.907655
0.845378
0.798159
0.792034
0.461361
0.893848
0.768533
0.627832
0.613130
0.584263
0.936068
0.793884
0.565909
0.327061
0.301455
0.762920
0.713016
0.970795
0.997262
0.143707
0.098511
0.280890
0.954660
0.822630
0.303134
0.754982
0.385596
0.218981
0.307340
0.376463
0.645717
0.994442
0.999126
0.725098
0.929027
0.852324
0.594218
0.510928
0.539350
0.237362
0.525622
0.468302
0.826687
0.092286
0.966721
0.995686
0.070027
0.492381
0.731149
0.379786
0.003446
0.032490
0.953753
0.976212
0.444316
0.168444
0.064341
0.467466
0.248807
0.932332
0.812151
0.300817
0.783632
0.020228
0.159920
0.215798
0.084431
0.282026
0.617513
0.789781
0.897679
0.070266
0.359992
0.206040
0.585152
0.560379
0.742721
0.861000
0.837647
0.758919
0.819189
0.913375
0.915289
0.990931
0.552135
0.527698
0.474328
0.957755
0.996573
0.999385
0.512201
0.064898
0.418769
0.987089
0.976192
0.727156
0.746302
0.432523
0.688958
0.557153
0.668086
0.090056
0.341165
0.995451
0.994005
0.318001
0.792450
0.725027
0.712391
0.525292
0.277664
0.017966
0.305703
0.990949
0.029077
0.067057
0.860966
0.663468
0.632802
0.843310
0.865405
0.809556
0.443613
0.295531
0.988314
0.030587
0.314795
0.722220
0.988695
0.993601
0.988753
0.780054
0.759114
0.903371
0.946983
0.164354
0.684379
0.909874
0.644408
0.336355
0.923714
0.788428
0.970646
0.572079
0.407443
0.890774
0.914192
0.850867
0.649286
0.355657
0.478437
0.348188
0.993121
0.982675
0.633920
0.270060
0.744853
0.474046
0.856044
0.477188
0.686978
0.662408
0.425343
0.717707
0.421861
0.171331
0.196595
0.355243
0.333554
0.364552
0.996486
0.981889
0.977206
0.012906
0.082920
0.933797
0.973458
0.860063
0.735037
0.950963
0.972901
0.571924
0.361316
0.893775
0.821104
0.616703
0.558663
0.671078
0.385994
0.006617
0.289028
0.852000
0.654919
0.651668
0.811880
0.759195
0.913085
0.562333
0.618085
0.570788
0.527221
0.387664
0.645991
0.337722
0.994910
0.967658
0.971717
0.074459
0.738564
0.957452
0.875501
0.847632
0.194691
0.104554
0.069910
0.311184
0.285909
0.642010
0.943213
0.081265
0.961318
0.995461
0.967203
0.908082
0.430173
0.998144
0.370704
0.524757
0.348554
0.416146
0.432477
0.568935
0.886422
0.916345
0.938638
0.068777
0.609183
0.937490
0.970378
0.333815
0.944532
0.468107
0.930307
0.209199
0.756210
0.392405
0.296715
0.303214
0.899067
0.936031
0.929296
0.840439
0.639337
0.081670
0.706505
0.989333
0.713740
0.795093
0.877600
0.795137
0.881990
0.899775
0.526823
0.608275
0.842501
0.314259
0.987177
0.994804
0.888101
0.150693
0.319683
0.511744
0.084342
0.089628
0.316448
0.626190
0.734861
0.778208
0.859960
0.302404
0.754255
0.932980
0.937464
0.922332
0.464673
0.704424
0.978153
0.866246
0.538026
0.403283
0.300858
0.276394
0.365744
0.854526
0.875606
0.910706
0.367859
0.758269
0.710273
0.664265
0.739502
0.893871
0.729791
0.594131
0.360704
0.658786
0.875809
0.944941
0.589003
0.309398
0.842271
0.889633
0.822469
0.863257
0.676282
0.630380
0.497363
0.880063
0.581070
0.766534
0.477156
0.918675
0.071177
0.052223
0.670341
0.891156
0.810579
0.842456
0.971507
0.558837
0.592339
0.629477
0.622365
0.499321
0.568533
0.670180
0.596781
0.769021
0.851778
0.442676
0.406814
0.152483
0.528557
0.858629
0.834691
0.424210
0.366814
0.920466
0.882926
0.800911
0.602942
0.555209
0.104639
0.290086
0.269851
0.845441
0.849776
0.895197
0.717202
0.834932
0.119969
0.642762
0.963827
0.449064
0.998565
0.986607
0.634538
0.297524
0.353280
0.330440
0.372686
0.342225
0.787251
0.102496
0.770599
0.713467
0.865707
0.871429
0.812523
0.458637
0.930138
0.375459
0.991729
0.627385
0.593443
0.238218
0.329916
0.248180
0.340621
0.313576
0.727796
0.737514
0.346387
0.982494
0.235376
0.727593
0.079021
0.350773
0.324863
0.245926
0.700108
0.741190
0.121906
0.903033
0.898642
0.838214
0.919274
0.896123
0.280172
0.304967
0.525321
0.099675
0.366328
0.240112
0.688459
0.081743
0.872318
0.798272
0.938335
0.907564
0.840796
0.975464
0.232282
0.359116
0.354231
0.593755
0.567088
0.764312
0.032678
0.163760
0.044567
0.715267
0.931739
0.401660
0.973689
0.961132
0.957138
0.080679
0.114149
0.373474
0.261577
0.234669
0.312453
0.651004
0.521896
0.298180
0.826338
0.774268
0.821091
0.965282
0.010794
0.321682
0.365272
0.327145
0.268471
0.644001
0.138033
0.154681
0.065678
0.017602
0.981173
0.895852
0.390477
0.981874
0.121497
0.382065
0.334979
0.274706
0.577998
0.101961
0.339014
0.651434
0.125557
0.581094
0.363310
0.472172
0.576750
0.281927
0.275569
0.230356
0.124078
0.920527
0.898925
0.773447
0.227265
0.277408
0.328172
0.715420
0.998765
0.309049
0.285043
0.032099
0.994940
0.997684
0.799244
0.233636
0.966881
0.518215
0.906733
0.598913
0.556559
0.973079
0.356104
0.311438
0.303935
0.189991
0.527907
0.933803
0.963188
0.622630
0.650996
0.841025
0.453752
0.552650
0.929747
0.899283
0.634256
0.875311
0.309030
0.351769
0.081406
0.418189
0.381950
0.982193
0.969081
0.978839
0.252464
0.018311
0.113002
0.080243
0.497271
0.397844
0.957558
0.997486
0.561718
0.602518
0.669232
0.992367
0.794199
0.976043
0.366455
0.287824
0.973020
0.747497
0.246947
0.963615
0.299785
0.088370
0.340156
0.283467
0.902593
0.711384
0.163742
0.513415
0.325022
0.282186
0.235147
0.219950
0.036350
0.948434
0.919288
0.721727
0.556960
0.405183
0.357860
0.134508
0.062382
0.948814
0.971417
0.976094
0.986430
0.906613
0.685413
0.866421
0.956509
0.611931
0.631148
0.401304
0.326082
0.250170
0.191928
0.948652
0.945988
0.965929
0.978906
0.495267
0.910902
0.057847
0.340896
0.336471
0.189746
0.167860
0.931947
0.998578
0.723830
0.551556
0.149455
0.345355
0.277526
0.237157
0.170023
0.067604
0.332047
0.177783
0.854221
0.768400
0.799698
0.477285
0.408014
0.329615
0.300953
0.215758
0.161502
0.114753
0.820309
0.243299
0.232823
0.360235
0.102456
0.700668
0.686640
0.924503
0.955360
0.966100
0.427177
0.251279
0.183852
0.044995
0.984708
0.940334
0.889203
0.311318
0.239966
0.355037
0.345980
0.269732
0.182724
0.168635
0.121160
0.803667
0.868403
0.872788
0.397515
0.295810
0.103752
0.088860
0.189618
0.658306
0.994949
0.771078
0.931826
0.963777
0.419884
0.348017
0.426286
0.366659
0.185011
0.092410
0.874591
0.628144
0.923619
0.977881
0.425259
0.905377
0.632658
0.882196
0.356164
0.248792
0.588221
0.427238
0.568771
0.947891
0.461026
0.438147
0.341118
0.285423
0.137963
0.135629
0.159541
0.264435
0.310872
0.684758
0.669371
0.622397
0.670922
0.588585
0.838102
0.446869
0.866351
0.220613
0.207231
0.147367
0.944227
0.137096
0.525201
0.601471
0.697429
0.967983
0.214266
0.358343
0.388087
0.843851
0.568532
0.518571
0.883324
0.074042
0.644178
0.902429
0.364146
0.134593
0.327669
0.198011
0.197510
0.242297
0.752186
0.879026
0.776103
0.827644
0.438141
0.873998
0.723069
0.270380
0.252494
0.154553
0.230064
0.422182
0.791499
0.876957
0.850932
0.733454
0.864890
0.978781
0.999842
0.550146
0.540855
0.294760
0.426783
0.823405
0.705625
0.270144
0.180046
0.642004
0.688120
0.491148
0.629784
0.810500
0.826490
0.409360
0.465734
0.333821
0.186814
0.180874
0.084887
0.193860
0.970822
0.437719
0.184928
0.318608
0.199233
0.194047
0.190562
0.156565
0.199689
0.146447
0.949573
0.644246
0.750770
0.858872
0.094184
0.447308
0.313883
0.238630
0.156229
0.136832
0.371066
0.732691
0.986210
0.776860
0.234763
0.157862
0.633423
0.762796
0.796920
0.469212
0.956653
0.122362
0.636703
0.332955
0.258609
0.138530
0.116104
0.346259
0.862617
0.723609
0.330450
0.782607
0.745305
0.512097
0.957934
0.085906
0.406761
0.400131
0.910826
0.826765
0.695260
0.885088
0.341112
0.291350
0.790851
0.960793
0.751007
0.432824
0.140523
0.123628
0.332286
0.956027
0.625133
0.879355
0.157755
0.391930
0.259678
0.223785
0.303959
0.167355
0.733856
0.944344
0.978401
0.863491
0.953931
0.698506
0.894041
0.865778
0.739196
0.902991
0.448243
0.073787
0.396032
0.385162
0.286159
0.268487
0.217277
0.766392
0.855302
0.378462
0.389380
0.916544
0.878790
0.962370
0.903354
0.756305
0.239124
0.975767
0.684917
0.138222
0.496161
0.472670
0.259810
0.256892
0.233234
0.212991
0.498543
0.804655
0.892275
0.727769
0.790144
0.960443
0.841675
0.721416
0.452587
0.363917
0.291734
0.242045
0.173210
0.134913
0.933643
0.648158
0.794029
0.854497
0.077867
0.106637
0.711976
0.257711
0.994373
0.802866
0.797531
0.894405
0.467575
0.274301
0.114315
0.472200
0.142429
0.073617
0.509565
0.914407
0.376832
0.973948
0.842627
0.873719
0.612618
0.800552
0.170989
0.397442
0.372036
0.066526
0.221038
0.250037
0.960843
0.680289
0.595001
0.868354
0.692420
0.095913
0.298930
0.407282
0.358770
0.276250
0.494349
0.370783
0.362190
0.873414
0.818609
0.658531
0.873931
0.638287
0.794216
0.263574
0.036253
0.364511
0.291371
0.022217
0.435243
0.279904
0.368327
0.377463
0.995475
0.941864
0.850859
0.794780
0.855670
0.543207
0.465030
0.298908
0.276908
0.011908
0.064698
0.482120
0.340711
0.828749
0.675896
0.972246
0.502745
0.876513
0.147372
0.515360
0.492263
0.369355
0.284574
0.082626
0.079399
0.120392
0.417948
0.299042
0.713646
0.815853
0.636820
0.895082
0.714662
0.480209
0.563762
0.353257
0.298415
0.290516
0.285056
0.067325
0.029430
0.516954
0.459466
0.451632
0.689189
0.400662
0.865829
0.342705
0.564426
0.417110
0.288309
0.311617
0.354723
0.459354
0.489398
0.413657
0.407509
0.662376
0.953527
0.704940
0.145028
0.983435
0.321369
0.284892
0.305300
0.279171
0.349785
0.128969
0.512161
0.543273
0.560457
0.520577
0.688294
0.501330
0.703908
0.698805
0.292844
0.299702
0.382394
0.681222
0.798435
0.515783
0.496422
0.513431
0.776516
0.665307
0.655731
0.718984
0.297023
0.848997
0.933292
0.288952
0.285275
0.281747
0.733717
0.586953
0.503644
0.554308
0.605150
0.797361
0.738492
0.659921
0.326653
0.905959
0.404601
0.374882
0.288431
0.292760
0.165505
0.606245
0.627588
0.563127
0.614500
0.277015
0.775564
0.547662
0.067188
0.657598
0.264947
0.438657
0.425164
0.342617
0.310352
0.587170
0.033292
0.641403
0.636599
0.627749
0.559727
0.544224
0.059477
0.778092
0.088321
0.176361
0.432919
0.367428
0.382762
0.624693
0.607933
0.629952
0.799450
0.068675
0.631733
0.798112
0.688486
0.143501
0.278220
0.432983
0.686079
0.743715
0.679921
0.673119
0.668351
0.650632
0.228200
0.353334
0.795758
0.351966
0.314571
0.249612
0.236230
0.241392
0.706403
0.717493
0.106895
0.905944
0.677535
0.503491
0.963233
0.953464
0.080702
0.505249
0.746903
0.780190
0.715212
0.704131
0.845869
0.125017
0.609604
0.205684
0.943003
0.354827
0.324865
0.375671
0.653171
0.652551
0.572456
0.717454
0.147363
0.229898
0.510357
0.422420
0.274490
0.283719
0.377300
0.622372
0.657891
0.653023
0.318844
0.263075
0.990553
0.934271
0.800958
0.971200
0.273955
0.789718
0.794583
0.785704
0.818888
0.790520
0.767746
0.147367
0.212011
0.795102
0.491774
0.474310
0.366892
0.297450
0.400807
0.511965
0.170495
0.468140
0.757429
0.774729
0.803868
0.891759
0.827598
0.323906
0.327871
0.631193
0.470405
0.374930
0.359570
0.348689
0.313937
0.239546
0.644455
0.825457
0.857880
0.860901
0.542007
0.782992
0.933546
0.484002
0.134776
0.442651