# vtk DataFile Version 3.0
File created by libpointmatcher
ASCII
DATASET POLYDATA
POINTS 525 float
           0            0            0
   0.0032683  6.23147e-05 -0.000126004
 -0.00405395 -0.000962102 -0.000587523
 -0.00619131  -0.00331169   0.00150019
  0.00712463  0.000996642   0.00160807
   0.0278931   0.00205372  -0.00146145
   0.0557821   0.00107011 -0.000929058
   0.0939967  -0.00225926   0.00123948
    0.145989  0.000176661  0.000303924
    0.197683   0.00148972   0.00171715
    0.261337  -0.00321716   0.00524956
    0.342424  -0.00391989   0.00458604
    0.421422  -0.00559361  0.000480771
    0.512514 -0.000502789   0.00844276
    0.593116  -0.00280409    0.0132284
    0.677126  -0.00861918    0.0129987
    0.808815  -0.00360596    0.0137725
    0.931819   0.00103431    0.0202729
     1.05418   -0.0118582  -0.00289738
     1.16304   -0.0135208   0.00549585
     1.31108    -0.019838    0.0223185
     1.48435   -0.0392923     0.010947
     1.62149   -0.0424034   0.00694805
     1.78433   -0.0416615    0.0147351
      1.9438   -0.0530794    0.0145075
     2.09285   -0.0617846    0.0127657
     2.26403   -0.0731484    0.0122983
     2.40955   -0.0726883    0.0199627
     2.55922   -0.0653111    0.0239347
     2.70924    -0.069817    0.0261554
     2.85629   -0.0773811    0.0256538
     2.99003   -0.0834526    0.0192654
      3.1387   -0.0828598    0.0371504
     3.29339   -0.0831657    0.0288895
     3.44002    -0.087472    0.0416825
     3.58278   -0.0848109    0.0440431
       3.733   -0.0860352    0.0522536
     3.89148   -0.0896824    0.0568684
     4.03186   -0.0802685    0.0541642
     4.18424   -0.0831711    0.0635502
     4.33361   -0.0871154    0.0580857
     4.46875   -0.0900275    0.0664546
     4.75949   -0.0956104    0.0797873
     4.89504   -0.0928542     0.105672
     5.04429   -0.0916803    0.0976516
     5.20465    -0.101408    0.0846106
     5.34543   -0.0840723     0.115171
     5.48579   -0.0746814     0.101509
     5.61728   -0.0798516     0.117377
     5.78393   -0.0845311      0.13666
     5.94479    -0.101333      0.12233
     6.08811   -0.0987611     0.136828
     6.24043    -0.105685     0.124382
     6.38968    -0.106196     0.153813
     6.53452    -0.114197     0.133598
     6.68295    -0.119369     0.154881
     6.82319    -0.109179     0.182163
     6.95865    -0.103037     0.195258
     7.12169     -0.12158     0.181184
     7.27004    -0.127042     0.191833
     7.41492    -0.123012     0.190023
      7.5619    -0.110641     0.200189
     7.70378    -0.104455     0.193735
     7.85207   -0.0947763      0.20988
     8.00865   -0.0964617      0.22569
     8.15596   -0.0885602     0.219988
     8.31439   -0.0828868     0.228742
     8.46339   -0.0669365     0.228921
     8.59701   -0.0539812     0.246601
     8.74105   -0.0597613     0.241685
     8.91412   -0.0487142     0.253099
      9.0435   -0.0238562     0.252087
     9.19818   -0.0185281     0.255922
     9.34024   -0.0120663     0.264397
     9.47923   0.00109419     0.268074
     9.63838   0.00846716     0.276837
     9.78605     0.019009     0.283703
     9.92208    0.0320536     0.290242
     10.0615    0.0449749     0.304471
      10.221    0.0510337     0.288989
     10.3571    0.0576067      0.30257
     10.5187    0.0907158     0.315237
     10.6655    0.0995542     0.305119
     10.7929     0.137181     0.314657
     10.9522     0.153749     0.317214
     11.1022     0.179499     0.331826
     11.2503     0.208756     0.319869
     11.4046     0.229408     0.325173
     11.5488       0.2515     0.330966
     11.6935      0.28213      0.33347
     11.8302     0.316968     0.342753
     11.9887     0.339666     0.340168
     12.1275     0.367034     0.338022
     12.2696     0.395419     0.345025
     12.4203     0.424387     0.339949
     12.5656     0.449261     0.359437
     12.7079      0.47885       0.3588
     12.8535     0.515569     0.368923
     13.0174     0.551621     0.362182
     13.1689     0.579358     0.343253
     13.3027     0.618709     0.363925
     13.4502     0.655542     0.364908
     13.5837      0.69475     0.375344
     13.7317     0.736244      0.37188
     13.8813     0.782491     0.378663
     14.0134     0.811173     0.392088
     14.1582     0.849592     0.394283
      14.293     0.895573     0.386483
     14.4362     0.920664     0.403877
     14.5767     0.975139     0.394253
     14.7103      1.01783     0.403768
     14.8478      1.05845       0.4068
     14.9798      1.10669     0.404554
     15.1358      1.15152     0.403422
     15.2685      1.20772     0.413592
     15.4089      1.26391     0.431646
     15.5673      1.32412     0.417128
      15.725      1.37878     0.418806
     15.8419      1.42688     0.405728
     16.1285      1.53239     0.405503
     16.2681      1.59966     0.388371
     16.4015      1.65679     0.390831
     16.5317       1.7164      0.39347
     16.6522      1.77534     0.420391
       16.78      1.84324     0.429016
     16.9187      1.91566     0.432056
     17.0556      1.98352     0.417316
     17.1834      2.05527     0.419392
     17.2966      2.11444      0.46614
     17.4217      2.17735     0.449722
      17.548      2.25126     0.456019
     17.7012      2.32745     0.460143
     17.8396       2.4084     0.448189
     17.9346      2.48376     0.480594
     18.0842      2.55387     0.475432
     18.2047      2.64338     0.484321
     18.4625      2.82141       0.4579
      18.583      2.90406     0.437717
     18.6977       2.9938     0.479141
     18.8527      3.07215     0.474855
      18.949      3.17207     0.448033
     19.0529      3.25462     0.479036
      19.265      3.46409     0.463726
     19.3761       3.5415      0.47519
     19.4617       3.6437     0.456484
     19.5632      3.75188     0.494553
     19.8045      3.97876     0.452041
     19.8936       4.0965     0.468017
     20.1139      4.34654     0.460424
     20.1804      4.44126     0.462553
     20.2356      4.53162     0.454574
     20.4539      4.80814     0.416099
     20.6975      5.19727     0.444949
      20.787      5.33504       0.4196
     20.8801      5.46615     0.415144
     21.0109      5.72517      0.38944
     21.0717      5.85062     0.394023
     21.1287      5.97594     0.414547
      21.195      6.11571      0.38091
     21.2595      6.26749     0.375991
      21.311      6.40282     0.371774
     21.3504       6.5346      0.38568
     21.3843      6.67027     0.413367
     21.4438      6.81956     0.391705
     21.4944      6.96969     0.361336
     21.5335      7.09942     0.376955
     21.5827      7.25213      0.36666
     21.6165      7.39427     0.364833
     21.6573      7.54857     0.351216
     21.6859       7.6894     0.350372
      21.717      7.83111     0.366064
     21.7452      7.97222     0.349788
     21.7776      8.11111     0.361619
     21.8162      8.27925     0.342165
     21.8493      8.56261     0.360483
     21.8723      8.72375     0.330291
     21.8843      8.87115     0.335148
     21.9073      9.01936     0.314204
     21.9257      9.17052     0.320571
     21.9235      9.31897     0.314078
     21.9243      9.47184     0.298851
     21.9351      9.65722     0.302842
     21.9339      10.1288     0.288823
       21.92      10.2757     0.282174
     21.9143      10.4302     0.280824
     21.9005        10.58     0.286396
      21.893      10.7378     0.273703
     21.8805      10.8938     0.275809
     21.8677      11.0485     0.260732
     21.8562      11.2049     0.262481
     21.8403      11.3532     0.256221
      21.814      11.5026     0.254271
     21.7974      11.6532     0.252702
     21.7811      11.8043     0.246898
     21.7697       11.953     0.238781
     21.7488      12.0963     0.237379
     21.7263      12.2502     0.243487
     21.7076      12.3958     0.238851
     21.6886      12.5407     0.238137
     21.6664      12.6905      0.23844
     21.6427       12.838     0.235519
     21.6181      12.9894     0.226674
      21.593      13.1446     0.230897
     21.5649      13.2863     0.230385
     21.5402        13.44     0.227697
     21.5127      13.5968     0.226332
     21.4813      13.7531     0.216332
     21.4576      13.8906     0.221846
     21.4312      14.0425     0.227732
     21.3988      14.1963     0.230376
     21.3728      14.3404     0.220752
     21.3423      14.4814     0.220781
     21.3111      14.6232     0.215044
     21.2745      14.7937     0.206756
     21.1845      15.2494     0.202515
     21.1237      15.5455     0.195428
     21.0949      15.6937     0.187722
     21.0648      15.8419     0.189237
      21.033       15.999     0.177314
     20.9982      16.1496     0.175168
     20.9635       16.301     0.176009
     20.9375      16.4447     0.175428
      20.907      16.6008     0.175928
     20.8742      16.7472     0.159975
     20.8379      16.8975     0.156474
     20.8082      17.0398     0.154074
     20.7779       17.187     0.151604
     20.7406      17.3479     0.147532
     20.7102      17.4951     0.144855
     20.6765      17.6384     0.149228
     20.6482       17.779     0.139094
     20.6167      17.9239     0.139143
     20.5822      18.0785     0.131164
     20.5421       18.236     0.126417
     20.4741      18.5165     0.120805
      20.441      18.6698     0.116176
     20.4063       18.821     0.112395
     20.3684      18.9695     0.106282
     20.3392      19.1098    0.0862438
     20.2784      19.3927    0.0797576
     20.2458      19.5504    0.0755175
     20.2085      19.7022    0.0724868
      20.178      19.8505    0.0666806
     20.1233      20.0322    0.0552767
     20.0178       20.481    0.0340728
     19.9153      20.9233    0.0290057
      19.885      21.0656    0.0189517
     19.8584      21.2041    0.0123016
     19.8335      21.3405    0.0262354
     19.8113      21.4825   -0.0038684
     19.7752      21.6273   -0.0088045
     19.7138      21.9084    -0.025989
     19.6824      22.0531   -0.0174214
[...]
POINT_DATA 525
VECTORS orientationX float
           1            0            0
           1 -0.000838888 -5.52684e-05
    0.999998  -0.00198224  -8.6945e-05
    0.999999  -0.00146876  0.000893757
    0.999992 -0.000744815   0.00394824
    0.999977  -0.00438302   0.00513213
    0.999971  -0.00614361   0.00451577
    0.999945  -0.00692641    0.0079327
    0.999914  -0.00839062     0.010121
    0.999863   -0.0105962    0.0127226
    0.999838   -0.0119931    0.0134325
      0.9998   -0.0127717    0.0153823
    0.999743   -0.0166091    0.0154218
    0.999587   -0.0236445    0.0163423
    0.999413   -0.0277464    0.0201225
    0.999592   -0.0231772    0.0167171
    0.999673    -0.022886    0.0113847
    0.999555   -0.0286749   0.00827173
    0.999454   -0.0326794   0.00478201
     0.99946   -0.0326884  -0.00347605
    0.999436   -0.0328914  -0.00681995
    0.999384   -0.0344976  -0.00655985
     0.99931   -0.0362545  -0.00809478
    0.999273   -0.0376111  -0.00617289
    0.999315   -0.0368153  -0.00365015
    0.999332    -0.036479  -0.00219716
    0.999323   -0.0367957  0.000845421
    0.999334   -0.0362811   0.00400378
    0.999321   -0.0362039    0.0069201
    0.999351    -0.034777   0.00940399
    0.999364   -0.0341788    0.0101503
    0.999466   -0.0318715   0.00714443
    0.999604   -0.0275543   0.00570094
    0.999661   -0.0252516   0.00628492
    0.999708   -0.0238746    0.0037557
    0.999745   -0.0217238   0.00621252
    0.999726   -0.0215302   0.00919696
    0.999564   -0.0242322    0.0169088
    0.999422   -0.0254094     0.022583
    0.999423   -0.0240414    0.0240054
    0.999413   -0.0231451    0.0252736
    0.999542   -0.0183622     0.024061
    0.999748  -0.00894717    0.0206063
    0.999802  -0.00162366    0.0198441
    0.999733   0.00528507    0.0225014
    0.999741   0.00771474    0.0214272
    0.999795   0.00233133    0.0201075
    0.999692   0.00107023    0.0248173
    0.999834   0.00237801     0.018091
     0.99965   0.00307365    0.0263008
    0.999486   0.00422805    0.0317694
    0.999608   0.00327244    0.0278256
    0.999661   0.00556254    0.0254414
    0.999671   0.00535805    0.0251037
    0.999668   0.00777745    0.0245882
    0.999871   0.00960826    0.0128958
     0.99981    0.0152779    0.0120919
    0.999283    0.0263293    0.0271994
    0.998742    0.0323565     0.038308
    0.998699    0.0336982      0.03828
    0.998656    0.0364297    0.0368666
    0.998585    0.0386142    0.0365621
    0.998411    0.0430805    0.0363313
    0.998433    0.0494639    0.0261586
    0.998307    0.0553419    0.0178833
    0.998277    0.0580164   0.00876895
    0.998482    0.0544898   0.00799696
    0.998552    0.0528016     0.010311
    0.998278    0.0575544    0.0113303
     0.99791    0.0619164    0.0185285
    0.997753    0.0622055    0.0248809
    0.997547    0.0640599    0.0282245
    0.997209    0.0682802    0.0302078
    0.996983    0.0718109    0.0294643
    0.996538    0.0759759    0.0337536
    0.996343    0.0792083    0.0320335
    0.996218    0.0830032    0.0256992
     0.99582    0.0872691    0.0269604
    0.995171    0.0945054    0.0265294
    0.994633    0.0998397    0.0271726
    0.994227      0.10613     0.015805
    0.993403     0.114437   0.00735515
    0.992712      0.11988    0.0123093
     0.99185     0.126786    0.0126302
    0.991063     0.132914    0.0112852
    0.990196     0.139684 -0.000127688
    0.989587     0.143932  -0.00149077
    0.988985     0.147993   0.00277689
    0.987547     0.157323 -0.000798778
    0.986722     0.162419  0.000570746
    0.985715     0.168414  -0.00144257
    0.984636     0.174615  -0.00137095
    0.983893     0.178752   0.00194283
    0.982433     0.186584   0.00338938
    0.980613     0.195932   0.00317223
    0.978543      0.20603   0.00253642
    0.975927     0.217997    0.0066791
    0.973632     0.228125  0.000689068
    0.971534     0.236707  -0.00956671
    0.970384     0.241548   0.00305115
    0.968234     0.250025   0.00316848
    0.966468     0.256764   -0.0034577
    0.964281     0.264878    0.0014059
    0.961945     0.273104   0.00880655
    0.961677     0.273773     0.015003
    0.960544     0.277962   0.00961602
    0.958186     0.286147 -0.000360824
    0.956627     0.291258   0.00571055
    0.954539     0.297793    0.0132168
    0.951955     0.306168   0.00651944
     0.95004     0.312078   0.00564499
    0.946364     0.323014   0.00755837
    0.943429     0.331491   0.00750994
    0.941313      0.33723    0.0143412
    0.938238     0.345861   0.00945083
    0.934642     0.355483  -0.00876113
    0.931369     0.363485   -0.0207646
    0.929396     0.367798   -0.0307802
    0.926413     0.375593   -0.0262256
    0.916408     0.399993   -0.0142299
    0.914407     0.404788  -0.00262725
     0.91184     0.410437   0.00944258
     0.90646     0.421214     0.030155
    0.899683     0.435907     0.023569
    0.893959     0.447988     0.011985
    0.890258     0.455436   0.00443044
    0.886875     0.461962    0.0066954
    0.882744     0.469727    0.0109564
    0.875654     0.482908   0.00542256
    0.868121     0.496236     0.010753
    0.861757     0.507164    0.0126553
    0.856487     0.516154   0.00382514
    0.851357     0.524587 -0.000769787
    0.842688     0.538401  -0.00141465
    0.832548     0.553929  -0.00515068
    0.824307     0.565855    -0.018059
    0.808388     0.588167   -0.0238305
    0.797072     0.603479   -0.0221093
    0.784814      0.61911   -0.0277434
    0.769945      0.63728   -0.0325489
    0.757002      0.65329   -0.0126888
    0.742263     0.670036  -0.00989687
    0.716454     0.697611     0.005788
    0.702886     0.711296   0.00301683
    0.688137     0.725581  0.000222353
    0.670588     0.741613   -0.0179427
    0.639359     0.767963   -0.0381224
    0.628617     0.775898   -0.0531367
    0.606282     0.794937   -0.0222943
     0.59495     0.803663   -0.0126345
    0.581126      0.81361   -0.0181796
    0.547274     0.836388   -0.0307685
     0.50774     0.859145   -0.0637994
    0.487116     0.871092    -0.062592
    0.470247     0.880439   -0.0607905
    0.440623     0.896708   -0.0420208
     0.42238     0.905932   -0.0296941
    0.399846     0.916139   -0.0285014
    0.377765     0.925431   -0.0295219
    0.362573     0.931704   -0.0216559
    0.349146     0.936901   -0.0176957
     0.33209     0.942878   -0.0264054
    0.312224     0.949277   -0.0372833
    0.293839     0.955078   -0.0385293
    0.281305     0.958939   -0.0360935
    0.269655     0.961986   -0.0432295
    0.256543     0.965586   -0.0427634
    0.242578     0.969273   -0.0408129
    0.229475     0.972753   -0.0330596
    0.215289     0.976107   -0.0294114
    0.197795     0.979606   -0.0353561
    0.180868     0.982809   -0.0370601
    0.164495     0.985385    -0.044247
    0.144724     0.988116   -0.0517891
    0.111429     0.992414   -0.0519418
   0.0900264     0.994818   -0.0472486
   0.0719131      0.99662    -0.039717
   0.0522264     0.997988   -0.0359696
   0.0343902     0.998427   -0.0442826
   0.0151259     0.998849   -0.0455137
  -0.0032642     0.999159   -0.0408807
  -0.0218895     0.998786   -0.0441278
  -0.0622408     0.997321   -0.0384259
  -0.0673981     0.996986   -0.0384144
  -0.0750041     0.996312   -0.0416698
  -0.0839398     0.995664   -0.0400913
  -0.0911424     0.995001   -0.0408098
  -0.0967165     0.994277   -0.0453795
   -0.102346     0.993642   -0.0469168
   -0.107443     0.993019   -0.0486704
   -0.110489     0.992821   -0.0458158
   -0.117567      0.99208   -0.0442218
   -0.124452      0.99133    -0.042145
   -0.131184     0.990729   -0.0353179
   -0.137137     0.990137   -0.0286951
   -0.141578     0.989464   -0.0302783
   -0.146671     0.988688   -0.0313734
   -0.153106     0.987869   -0.0259411
   -0.161022     0.986731    -0.020813
   -0.166673     0.985803   -0.0203096
   -0.171305      0.98497   -0.0221068
   -0.174774     0.984372   -0.0215987
   -0.178779     0.983644   -0.0219659
   -0.184437     0.982549   -0.0240945
   -0.190444      0.98128   -0.0286419
   -0.195836     0.980141   -0.0311929
    -0.20078     0.979123   -0.0317113
   -0.205169     0.978179   -0.0327445
   -0.206145      0.97798   -0.0325341
    -0.20537     0.978235   -0.0296399
   -0.203867     0.978637   -0.0266328
   -0.200147     0.979382   -0.0274159
   -0.197186     0.979967   -0.0279694
   -0.195442     0.980341   -0.0270803
   -0.198446     0.979379   -0.0379026
   -0.203686     0.978295   -0.0380878
   -0.207485     0.977411     -0.04022
   -0.210247     0.976653   -0.0441141
   -0.210769     0.976499   -0.0450015
   -0.207933     0.977066   -0.0458967
   -0.207355     0.977169   -0.0463059
    -0.21209     0.976124   -0.0469076
    -0.21311     0.975978   -0.0452922
   -0.209867     0.976833   -0.0418661
   -0.206015     0.977601   -0.0430512
   -0.208267     0.977074    -0.044184
   -0.211979     0.976299   -0.0436532
    -0.21216     0.976288   -0.0430109
   -0.210839     0.976475   -0.0452143
   -0.213523     0.975762   -0.0479176
   -0.218136     0.974777   -0.0471984
   -0.220184     0.974318   -0.0471473
   -0.221689     0.974076   -0.0450507
   -0.220042     0.974311   -0.0479605
   -0.220668     0.974149   -0.0483666
   -0.224583     0.973223   -0.0489967
   -0.226261     0.972726   -0.0510861
    -0.22766     0.972401   -0.0510562
   -0.228729     0.972344    -0.047225
   -0.233894     0.970771   -0.0538295
   -0.235832     0.970118   -0.0570494
   -0.234948       0.9702   -0.0592636
   -0.233287     0.970282   -0.0642682
   -0.229273     0.970967   -0.0682458
   -0.218688     0.973333   -0.0692749
   -0.206283     0.976873   -0.0562802
   -0.201311       0.9782    -0.050977
   -0.199074      0.97899   -0.0441299
   -0.200562     0.978941   -0.0380814
   -0.202613      0.97885   -0.0283122
   -0.204365     0.978486   -0.0282857
   -0.205167     0.978032   -0.0368833
   -0.206806     0.977541   -0.0405463
   -0.208788     0.976948   -0.0444909
    -0.21092     0.976175   -0.0509522
   -0.211757     0.975978   -0.0512506
   -0.211292     0.976252    -0.047823
    -0.21199     0.976438   -0.0403588
   -0.212592     0.976472   -0.0361604
   -0.216276     0.975466    -0.041121
   -0.215629     0.975682    -0.039355
   -0.216879     0.975438   -0.0385279
   -0.215875      0.97542   -0.0442034
   -0.216318     0.975544   -0.0389922
   -0.216488     0.975679   -0.0344102
   -0.218472      0.97535   -0.0310113
   -0.220872     0.974838   -0.0301002
   -0.225083     0.973855   -0.0307293
   -0.235075     0.971518   -0.0298801
   -0.255131     0.966464   -0.0292434
   -0.264262     0.963962   -0.0307063
   -0.273246     0.961404   -0.0322542
   -0.304589     0.951548   -0.0422099
    -0.31732     0.947169   -0.0466852
   -0.330758     0.942426   -0.0493265
   -0.360764     0.931094   -0.0539686
    -0.37738     0.924508    -0.053559
   -0.397025     0.916492   -0.0491232
   -0.418946     0.906909   -0.0447277
   -0.437763     0.898085   -0.0425168
   -0.453904     0.890136   -0.0403716
   -0.482052     0.875318   -0.0379972
   -0.492081     0.869626   -0.0400742
   -0.504869     0.862179   -0.0418868
   -0.535507     0.843503   -0.0416662
   -0.552586      0.83235   -0.0429325
   -0.570008     0.820292   -0.0470395
   -0.587738     0.807628   -0.0479726
   -0.602269     0.796964    -0.046061
   -0.631537     0.774299   -0.0402895
   -0.656751     0.753263   -0.0356852
   -0.668435     0.743098   -0.0316277
   -0.677775     0.734701   -0.0289138
   -0.686941     0.726256   -0.0257632
   -0.697852     0.715834   -0.0241659
   -0.707118     0.706803   -0.0203445
   -0.717742     0.696139   -0.0154057
   -0.735782     0.676994   -0.0174654
   -0.747061     0.664685  -0.00969867
    -0.77181     0.635807  -0.00769292
   -0.783065     0.621924  -0.00440963
   -0.800471     0.599357   0.00429055
   -0.806467     0.591272   0.00292329
    -0.81503      0.57941   0.00312516
   -0.823044     0.567911   0.00872086
   -0.829937     0.557592    0.0171797
   -0.846059      0.53284    0.0163119
   -0.849951      0.52645     0.020832
   -0.863458     0.504151    0.0165175
   -0.877677     0.479205   0.00677522
   -0.888841     0.458201   -0.0036914
   -0.892162     0.451714  -0.00125635
   -0.911856      0.41021    0.0156713
   -0.923622      0.38279    0.0198705
   -0.936207     0.350578    0.0247413
   -0.943573     0.330206    0.0251723
   -0.957406     0.287043    0.0313177
   -0.966993      0.25202    0.0375528
   -0.976005     0.212974     0.045359
   -0.985236     0.162427    0.0541119
   -0.989374     0.133102    0.0585155
   -0.997622    0.0292396    0.0624092
   -0.998209    0.0146487    0.0579952
   -0.998126   -0.0170324    0.0587746
   -0.997899   -0.0346345    0.0547627
   -0.997014   -0.0553164    0.0538957
   -0.995653   -0.0770886    0.0522722
   -0.993513    -0.100262    0.0536701
    -0.99143    -0.120775    0.0498002
   -0.989431    -0.138792    0.0419907
   -0.983314    -0.176896    0.0424371
   -0.979494    -0.196893    0.0427153
   -0.970431    -0.235801    0.0515887
   -0.957944    -0.280177    0.0619996
   -0.943557    -0.323289    0.0720118
   -0.936009    -0.344226    0.0734532
   -0.921438    -0.383052    0.0649867
    -0.91587    -0.396476    0.0631536
   -0.902816    -0.428817    0.0322395
   -0.894805    -0.445479    0.0295394
   -0.880392    -0.473004    0.0342929
     -0.8723    -0.488072    0.0296431
   -0.847939     -0.52722    0.0551287
   -0.839125    -0.541922    0.0467988
   -0.781385    -0.622932    0.0373313
   -0.768236    -0.639164    0.0358291
   -0.741674    -0.669649    0.0385898
   -0.728492     -0.68419    0.0344069
   -0.716953    -0.696363    0.0325151
    -0.69159     -0.72144    0.0350408
   -0.681627    -0.730781    0.0366678
   -0.667362    -0.743083    0.0495586
   -0.635959    -0.768017    0.0755414
   -0.594304    -0.799951    0.0829468
   -0.549383    -0.835506   -0.0104386
   -0.483761    -0.868734    -0.106195
   -0.442885    -0.896543  -0.00795119
   -0.427925    -0.903211    0.0330326
   -0.402491    -0.911881    0.0804668
   -0.393762    -0.915308    0.0846332
   -0.375406    -0.922151    0.0933228
   -0.365367    -0.926265    0.0924164
    -0.34894    -0.934314    0.0727862
   -0.342357    -0.937451    0.0630647
   -0.334163    -0.941112    0.0514186
   -0.277568    -0.960634    0.0117672
   -0.256314    -0.966568  -0.00702115
   -0.245153    -0.969355   -0.0158786
    -0.23398    -0.972043   -0.0196207
   -0.220913    -0.975101   -0.0193814
   -0.206853    -0.978267   -0.0143333
   -0.191437    -0.981497  -0.00400938
   -0.165374    -0.985948    0.0236404
   -0.151356    -0.987904      0.03373
   -0.126881    -0.991151      0.03901
   -0.108042    -0.993933    0.0205934
  -0.0898058     -0.99571    0.0222827
  -0.0827813    -0.996421    0.0170976
  -0.0755676      -0.9971   0.00897359
  -0.0724843    -0.997304    0.0114003
  -0.0571917    -0.998346   -0.0058148
  -0.0459288    -0.998928  -0.00585117
  -0.0143661    -0.999866  -0.00790323
 0.000754405     -0.99998  -0.00628782
   0.0358395    -0.999354  -0.00264505
   0.0639621    -0.997947   0.00326796
    0.118193    -0.992861   -0.0160242
    0.125164    -0.992094  -0.00913388
    0.129857    -0.991523  -0.00442808
    0.134362    -0.990927   -0.0033063
    0.137948    -0.990439 -0.000763123
    0.141595    -0.989925 -0.000180951
      0.1462    -0.989251  -0.00280315
    0.152698    -0.988201   -0.0119193
    0.160329    -0.986941   -0.0155638
    0.174801    -0.984603  0.000899691
    0.180439    -0.983477    0.0146206
    0.180175    -0.983574    0.0109088
    0.180944    -0.983491   0.00240709
    0.187312    -0.982293   0.00392388
    0.193892    -0.981013   0.00450716
    0.197897    -0.980202  -0.00635417
    0.200079    -0.979695   -0.0129129
     0.20192    -0.979399  -0.00265912
    0.209207    -0.977869    -0.002127
    0.225576    -0.974166    -0.010737
    0.231873    -0.972695   -0.0099959
    0.241592    -0.970345   -0.0080284
    0.248334    -0.968614   -0.0108682
    0.251391    -0.967791   -0.0135801
    0.278675    -0.960358  -0.00722576
    0.290851    -0.956741  -0.00729714
     0.30385     -0.95268  -0.00873002
    0.317396    -0.948156   -0.0161651
    0.330143    -0.943523   -0.0277458
    0.361514    -0.931665   -0.0361777
    0.374934    -0.926337   -0.0363908
    0.390437    -0.919767   -0.0398239
    0.412861    -0.909976   -0.0385868
    0.456264    -0.889775   -0.0111666
    0.489957    -0.871656   -0.0125809
    0.494439    -0.868993   -0.0195139
    0.503729    -0.862958   -0.0395103
     0.50766    -0.860303   -0.0464735
    0.512845    -0.857479   -0.0414625
     0.51515    -0.856219   -0.0388607
    0.518473    -0.854239    -0.038235
    0.527586    -0.848836   -0.0336295
    0.529883    -0.847418   -0.0332659
    0.532367    -0.845841   -0.0337342
    0.535911    -0.843641   -0.0327048
     0.54986    -0.834927   -0.0234905
    0.557436    -0.829984   -0.0197868
    0.567158     -0.82346    -0.015649
    0.592901    -0.804588   -0.0332611
    0.603877    -0.796649   -0.0261301
    0.607867    -0.793832   -0.0181137
    0.610493    -0.791801   -0.0187152
    0.616152    -0.787187   -0.0263289
    0.620447    -0.783623   -0.0313155
    0.637712    -0.769242    -0.039879
    0.641093    -0.766303   -0.0421887
    0.656406    -0.753544   -0.0360949
    0.660589    -0.749912   -0.0354124
    0.665496    -0.745654   -0.0334006
    0.666261    -0.744751   -0.0379906
    0.670175     -0.74101   -0.0420688
    0.675062    -0.736128    -0.049061
    0.678219    -0.733019   -0.0519874
    0.678679    -0.732764   -0.0495147
    0.678874     -0.73267    -0.048213
    0.678465    -0.732906   -0.0503447
    0.676478     -0.73447   -0.0541342
     0.67669    -0.734225   -0.0548163
     0.67746    -0.733311    -0.057467
     0.67928    -0.731252   -0.0620364
    0.680772    -0.729445   -0.0667819
    0.684364    -0.723702   -0.0888926
    0.685195     -0.72127    -0.101382
    0.684674     -0.72133    -0.104422
    0.678127    -0.725407    -0.118019
    0.669213    -0.731232    -0.132112
    0.668877    -0.736687   -0.0994829
    0.632772    -0.772422   -0.0544496
    0.610004    -0.791356   -0.0406314
    0.577245    -0.815413   -0.0434623
    0.552327    -0.830712   -0.0696564
    0.465557    -0.875334    -0.130568
    0.408602    -0.907209    -0.100085
    0.355426    -0.929686   -0.0967324
    0.293799    -0.952641   -0.0784668
    0.231676    -0.968092   -0.0955228
    0.208351    -0.974403   -0.0844362
   0.0387173    -0.999128    0.0156585
  -0.0313953    -0.999317    0.0194842
   -0.110534    -0.993872 -0.000363014
   -0.253424     -0.96727   -0.0128754
   -0.336666      -0.9413   -0.0247066
   -0.380728    -0.924216   -0.0295116
   -0.460166    -0.887739   -0.0129077
   -0.578792    -0.815401   -0.0110272
   -0.644279    -0.764628   -0.0157752
   -0.733828    -0.678675   -0.0299549
   -0.786162    -0.617009   -0.0353624
   -0.812859    -0.581044   -0.0405978
   -0.862138    -0.503531   -0.0563436
   -0.910662    -0.409529   -0.0545968
   -0.931073    -0.361859   -0.0464879
   -0.948231    -0.314487   -0.0442237
   -0.974546    -0.219184   -0.0470996
   -0.985019    -0.167203   -0.0422015
   -0.997305   -0.0610882   -0.0406312
   -0.997418    0.0393141   -0.0601051
   -0.991147     0.126112   -0.0415125
   -0.987954     0.147711   -0.0461275
   -0.982369     0.173426   -0.0698271
   -0.977724     0.188994   -0.0913123
   -0.975392     0.206627   -0.0769092
   -0.973927     0.215859   -0.0698032
   -0.971125     0.227093   -0.0731071
   -0.970223     0.234545   -0.0604717
   -0.966593     0.247361   -0.0671621
     -0.9641     0.258008   -0.0627905
   -0.961295     0.267653   -0.0653738
   -0.957793     0.277362   -0.0755216
     -0.9559     0.283926   -0.0751043
   -0.952745     0.293873    -0.076921
   -0.952269     0.293526   -0.0838283
   -0.953284     0.293452   -0.0716673
   -0.953018     0.295661   -0.0658923
   -0.952957     0.297169   -0.0597012